 Q-Chem 5.2 (devel), Q-Chem, Inc., Pleasanton, CA (2019)
 Q-Chem 5.2.0 for Intel X86 EM64T Linux

User input:
--------------------------------------------------------------
 $rem
 JOBTYPE OPT
 EXCHANGE B3LYP
 SCF_ALGORITHM diis
 SCF_MAX_CYCLES 300
 BASIS 6-31G**
 GEOM_OPT_MAX_CYCLES 300
 scf_convergence 8
 SYM_IGNORE TRUE
 SYMMETRY   FALSE

molden_format true
 $end

$molecule
0 1
C         -1.68471       -0.32692        0.21228
C         -1.29532       -1.65983        0.20567
C          0.19736       -1.73096        0.33335
C          0.60764       -0.29807        0.48174
C         -0.51543        0.50953        0.38999
C         -3.01847        0.06183        0.07060
C         -3.98765       -0.93146       -0.11021
C         -3.61174       -2.28291       -0.16101
C         -2.26590       -2.65465       -0.01660
H         -3.30337        1.10530        0.09179
H         -5.02770       -0.65566       -0.22656
H         -4.36487       -3.04325       -0.32299
H         -2.01925       -3.69901       -0.09295
C         -0.44849        1.89901        0.51496
C          1.84239        0.28610        0.81575
C          0.79517        2.48583        0.77776
C          1.93354        1.68075        0.94264
H          2.72403       -0.30674        0.99383
H          2.88455        2.13771        1.18378
H         -1.33549        2.51293        0.43292
H          0.87312        3.55980        0.88634
C          0.99306       -2.85316        0.37271
C          0.48657       -4.22927        0.79437
C          2.46252       -2.99543        0.11634
C          1.76808       -5.03348        1.13675
C          2.87794       -4.21414        0.61392
H          1.71822       -6.04358        0.67615
H          1.97000       -5.13635        2.22707
C          4.21096       -4.61899        0.59877
C          5.16442       -3.80024        0.00060
C          3.39958       -2.21342       -0.62935
C          4.76902       -2.61884       -0.64596
H          4.50335       -5.56764        1.03102
H          6.19878       -4.12308       -0.01623
C          5.72472       -1.86252       -1.34304
C          3.03724       -1.09962       -1.41495
C          3.99779       -0.36444       -2.11302
C          5.33937       -0.73384       -2.06333
H          2.01257       -0.79199       -1.52013
H          3.69748        0.49316       -2.70135
H          6.76743       -2.15778       -1.34985
H          6.07855       -0.16095       -2.60827
H         -0.05533       -4.68121       -0.06215
C         -0.35561       -4.22397        2.09492
H          0.22474       -3.77982        2.93304
H         -0.63002       -5.26609        2.36563
H         -1.29087       -3.64999        2.04069
$end
--------------------------------------------------------------

   15   -1040.9555402761      5.48e-09  Convergence criterion met
 Total energy in the final basis set =    -1040.9555402761
   12   -1040.9626969695      9.09e-09  Convergence criterion met
 Total energy in the final basis set =    -1040.9626969695
   12   -1040.9668317927      7.96e-09  Convergence criterion met
 Total energy in the final basis set =    -1040.9668317927
   12   -1040.9676981041      4.20e-09  Convergence criterion met
 Total energy in the final basis set =    -1040.9676981041
   11   -1040.9675598988      8.12e-09  Convergence criterion met
 Total energy in the final basis set =    -1040.9675598988
   11   -1040.9679310548      5.18e-09  Convergence criterion met
 Total energy in the final basis set =    -1040.9679310548
   10   -1040.9679957175      6.90e-09  Convergence criterion met
 Total energy in the final basis set =    -1040.9679957175
   10   -1040.9680969026      7.71e-09  Convergence criterion met
 Total energy in the final basis set =    -1040.9680969026
   11   -1040.9681749300      6.13e-09  Convergence criterion met
 Total energy in the final basis set =    -1040.9681749300
    9   -1040.9681866971      6.36e-09  Convergence criterion met
 Total energy in the final basis set =    -1040.9681866971

             Standard Nuclear Orientation (Angstroms)
    I     Atom           X                Y                Z
 ----------------------------------------------------------------
    1      C      -1.6386111673    -0.2921603187     0.2214797611
    2      C      -1.2093777441    -1.6427965909     0.1517950166
    3      C       0.2497375983    -1.7023865050     0.3956039216
    4      C       0.6626623964    -0.2964618951     0.6276993829
    5      C      -0.4841532877     0.5374959789     0.5614101783
    6      C      -2.9589015709     0.0582547995    -0.0573861417
    7      C      -3.8617966748    -0.9380083947    -0.4319486799
    8      C      -3.4361882583    -2.2657736236    -0.5537329460
    9      C      -2.1140794164    -2.6208368571    -0.2783575730
   10      H      -3.2801527975     1.0947346752    -0.0005009826
   11      H      -4.8936472933    -0.6790377466    -0.6506963180
   12      H      -4.1386695535    -3.0294539680    -0.8747937195
   13      H      -1.8010520503    -3.6503882757    -0.4147003545
   14      C      -0.4001502116     1.9015225420     0.8375181165
   15      C       1.8825954537     0.2565954376     1.0329295738
   16      C       0.8332986939     2.4456161496     1.1980034155
   17      C       1.9612748443     1.6239135151     1.3042322154
   18      H       2.7658466776    -0.3611780653     1.1393458014
   19      H       2.9129541407     2.0523572243     1.6050273445
   20      H      -1.2846441002     2.5307325793     0.7882755229
   21      H       0.9151998312     3.5071292942     1.4129365652
   22      C       1.0276412050    -2.8370993599     0.4619472726
   23      C       0.5368672379    -4.2046702396     0.9808264822
   24      C       2.4628121744    -2.9791232567     0.1761738968
   25      C       1.8486021787    -4.8899164793     1.4683625439
   26      C       2.9458860988    -4.1502047054     0.7622022438
   27      H       1.8685703874    -5.9660475955     1.2630579081
   28      H       1.9390881807    -4.7764401663     2.5577457337
   29      C       4.2930289218    -4.5413610949     0.6574850585
   30      C       5.1615183741    -3.7685355389    -0.0794419910
   31      C       3.3217078528    -2.2317326556    -0.7080675085
   32      C       4.7009695525    -2.6292085860    -0.7947168079
   33      H       4.6385202674    -5.4432233450     1.1552174181
   34      H       6.2095783844    -4.0440789168    -0.1624418756
   35      C       5.5830030154    -1.9046979889    -1.6399298639
   36      C       2.8812865951    -1.1827506604    -1.5557957907
   37      C       3.7586887547    -0.5179309075    -2.3865443362
   38      C       5.1281261758    -0.8624075545    -2.4143894016
   39      H       1.8346435840    -0.9109474667    -1.5572532131
   40      H       3.3894516865     0.2760298406    -3.0288696337
   41      H       6.6267986722    -2.2055867253    -1.6782208971
   42      H       5.8115640820    -0.3209418625    -3.0616233517
   43      H       0.1443562343    -4.7967454215     0.1403216948
   44      C      -0.4968260592    -4.1778435244     2.1154998639
   45      H      -0.1335799700    -3.5594996363     2.9429261365
   46      H      -0.6470558987    -5.1941904638     2.4962173650
   47      H      -1.4674231981    -3.7880656436     1.8126009526
 ----------------------------------------------------------------

    8   -1040.9681880234      5.85e-09  Convergence criterion met
 Total energy in the final basis set =    -1040.9681880234
 Final energy is   -1040.96818802337
 **  OPTIMIZATION CONVERGED  **

                    Orbital Energies (a.u.)
 --------------------------------------------------------------

 Alpha MOs
 -- Occupied --
-10.2083 -10.2024 -10.2021 -10.2005 -10.2001 -10.1990 -10.1984 -10.1951
-10.1940 -10.1928 -10.1919 -10.1905 -10.1899 -10.1871 -10.1855 -10.1854
-10.1852 -10.1843 -10.1840 -10.1836 -10.1832 -10.1827 -10.1820 -10.1814
-10.1803 -10.1798 -10.1729  -0.8884  -0.8766  -0.8484  -0.8340  -0.8104
 -0.7908  -0.7705  -0.7609  -0.7442  -0.7340  -0.7282  -0.7115  -0.7045
 -0.6743  -0.6523  -0.6274  -0.6116  -0.6003  -0.5875  -0.5832  -0.5754
 -0.5630  -0.5365  -0.5169  -0.5074  -0.4904  -0.4853  -0.4807  -0.4721
 -0.4582  -0.4498  -0.4449  -0.4341  -0.4300  -0.4239  -0.4175  -0.4138
 -0.4115  -0.4044  -0.4022  -0.4008  -0.3937  -0.3846  -0.3810  -0.3766
 -0.3618  -0.3534  -0.3490  -0.3456  -0.3419  -0.3384  -0.3325  -0.3309
 -0.3246  -0.3208  -0.3157  -0.2975  -0.2825  -0.2696  -0.2425  -0.2411
 -0.2261  -0.2065  -0.1874

          Ground-State Mulliken Net Atomic Charges

     Atom                 Charge (a.u.)
  ----------------------------------------
      1 C                     0.032078
      2 C                     0.059915
      3 C                    -0.026075
      4 C                     0.042196
      5 C                     0.033928
      6 C                    -0.121802
      7 C                    -0.096911
      8 C                    -0.092444
      9 C                    -0.139286
     10 H                     0.082010
     11 H                     0.081788
     12 H                     0.080532
     13 H                     0.084065
     14 C                    -0.124148
     15 C                    -0.123578
     16 C                    -0.096918
     17 C                    -0.093137
     18 H                     0.093957
     19 H                     0.080819
     20 H                     0.080391
     21 H                     0.080306
     22 C                    -0.013247
     23 C                    -0.117894
     24 C                     0.037986
     25 C                    -0.249379
     26 C                     0.055495
     27 H                     0.109034
     28 H                     0.122602
     29 C                    -0.128252
     30 C                    -0.127423
     31 C                     0.054445
     32 C                     0.104401
     33 H                     0.085175
     34 H                     0.088195
     35 C                    -0.136755
     36 C                    -0.113277
     37 C                    -0.097603
     38 C                    -0.086753
     39 H                     0.110196
     40 H                     0.091047
     41 H                     0.084470
     42 H                     0.086530
     43 H                     0.114353
     44 C                    -0.318832
     45 H                     0.110249
     46 H                     0.098086
     47 H                     0.119466
  ----------------------------------------
  Sum of atomic charges =    -0.000000

                    Cartesian Multipole Moments
 -----------------------------------------------------------------
    Charge (ESU x 10^10)
                -0.0000
    Dipole Moment (Debye)
         X       1.1809      Y      -1.4111      Z      -0.0478
       Tot       1.8407
    Quadrupole Moments (Debye-Ang)
        XX    -138.4048     XY      -5.5103     YY    -136.4950
        XZ       0.6401     YZ      -4.2700     ZZ    -156.3579

 Total job time:  672.36s(wall), 9186.91s(cpu)
        *  Thank you very much for using Q-Chem.  Have a nice day.  *
