 Q-Chem 5.2 (devel), Q-Chem, Inc., Pleasanton, CA (2019)
 Q-Chem 5.2.0 for Intel X86 EM64T Linux

User input:
--------------------------------------------------------------
 $rem
 JOBTYPE OPT
 EXCHANGE B3LYP
 SCF_ALGORITHM diis
 SCF_MAX_CYCLES 300
 BASIS 6-31G**
 GEOM_OPT_MAX_CYCLES 300
 scf_convergence 8
 SYM_IGNORE TRUE
 SYMMETRY   FALSE

molden_format true
 $end

$molecule
0 1
C         -1.83718       -0.41677        0.01345
C         -1.43500       -1.74596        0.02593
C          0.05069       -1.80271        0.23079
C          0.43663       -0.36579        0.40459
C         -0.68780        0.43071        0.25465
C         -3.16526       -0.04015       -0.19749
C         -4.11435       -1.04174       -0.43041
C         -3.72380       -2.38940       -0.46345
C         -2.38411       -2.74902       -0.24929
H         -3.46069        1.00057       -0.18955
H         -5.14938       -0.77524       -0.60064
H         -4.46034       -3.15632       -0.66571
H         -2.12567       -3.79103       -0.31361
C         -0.64238        1.82030        0.38787
C          1.64428        0.22958        0.81080
C          0.57858        2.41874        0.72121
C          1.71402        1.62453        0.94721
H          2.52026       -0.35559        1.03669
H          2.64519        2.09001        1.24323
H         -1.52994        2.42545        0.25972
H          0.63915        3.49298        0.83781
C          0.85908       -2.91472        0.31697
C          0.34684       -4.29088        0.75345
C          2.34102       -3.03728        0.12501
C          1.62817       -5.11474        1.06070
C          2.74701       -4.26291        0.61467
H          1.60134       -6.08297        0.51569
H          1.81148       -5.32420        2.13040
C          4.08238       -4.65945        0.64264
C          5.05377       -3.82212        0.10413
C          3.30364       -2.23805       -0.57167
C          4.67635       -2.63258       -0.53652
H          4.36373       -5.61655        1.06357
H          6.09015       -4.13837        0.12334
C          5.65540       -1.85946       -1.18089
C          2.96804       -1.11815       -1.36098
C          3.95176       -0.36624       -2.00700
C          5.29284       -0.72440       -1.90226
H          1.94762       -0.81780       -1.51147
H          3.66995        0.49557       -2.59835
H          6.69971       -2.14724       -1.14724
H          6.05025       -0.13879       -2.40720
H         -0.18733       -4.74042       -0.10866
C         -0.56721       -4.25870        2.04068
C         -1.04966       -5.66806        2.41783
H         -1.58636       -6.12638        1.56004
H         -1.75379       -5.61520        3.27568
H         -0.20651       -6.32927        2.70507
C          0.07358       -3.55745        3.25825
H          0.97058       -4.07746        3.64400
H         -0.66002       -3.51074        4.09140
H          0.35366       -2.51432        3.00312
H         -1.47817       -3.67973        1.84087
$end
--------------------------------------------------------------

   15   -1119.5853064310      5.96e-09  Convergence criterion met
 Total energy in the final basis set =    -1119.5853064310
   12   -1119.5923325891      8.87e-09  Convergence criterion met
 Total energy in the final basis set =    -1119.5923325891
   12   -1119.5964308111      7.91e-09  Convergence criterion met
 Total energy in the final basis set =    -1119.5964308111
   12   -1119.5974113247      4.43e-09  Convergence criterion met
 Total energy in the final basis set =    -1119.5974113247
   11   -1119.5972646164      7.15e-09  Convergence criterion met
 Total energy in the final basis set =    -1119.5972646164
   11   -1119.5975706144      6.01e-09  Convergence criterion met
 Total energy in the final basis set =    -1119.5975706144
   11   -1119.5975416198      4.23e-09  Convergence criterion met
 Total energy in the final basis set =    -1119.5975416198
   11   -1119.5975947982      2.45e-09  Convergence criterion met
 Total energy in the final basis set =    -1119.5975947982
   10   -1119.5975923998      6.58e-09  Convergence criterion met
 Total energy in the final basis set =    -1119.5975923998
    9   -1119.5976043240      7.93e-09  Convergence criterion met
 Total energy in the final basis set =    -1119.5976043240

             Standard Nuclear Orientation (Angstroms)
    I     Atom           X                Y                Z
 ----------------------------------------------------------------
    1      C      -1.7997417322    -0.4020696491    -0.0252105800
    2      C      -1.3573730798    -1.7513962445    -0.0208862796
    3      C       0.0950590693    -1.7839645835     0.2769454028
    4      C       0.4735810534    -0.3693116894     0.5087645935
    5      C      -0.6745624255     0.4500835599     0.3513802383
    6      C      -3.1091367099    -0.0717794593    -0.3718975090
    7      C      -3.9942334795    -1.0885365727    -0.7320035646
    8      C      -3.5616400278    -2.4191802232    -0.7611772443
    9      C      -2.2506066728    -2.7548087523    -0.4185556893
   10      H      -3.4349075591     0.9648079655    -0.3727314775
   11      H      -5.0178195539    -0.8464381580    -1.0025685534
   12      H      -4.2520269941    -3.2033944641    -1.0582405897
   13      H      -1.9429492749    -3.7930049220    -0.4709726533
   14      C      -0.6236496698     1.8200960507     0.6054685526
   15      C       1.6554732591     0.2053869654     0.9920494662
   16      C       0.5755124101     2.3850588005     1.0412991178
   17      C       1.7006957674     1.5776622656     1.2443080758
   18      H       2.5348070889    -0.4000530393     1.1751574661
   19      H       2.6231006573     2.0210977493     1.6079257053
   20      H      -1.5097220967     2.4375306571     0.4849319181
   21      H       0.6308141143     3.4509632802     1.2424629845
   22      C       0.8880391295    -2.9093242383     0.3800090322
   23      C       0.3682853764    -4.2696848354     0.8924623056
   24      C       2.3306811387    -3.0431956035     0.1470652743
   25      C       1.6516926185    -5.1007767472     1.1794174902
   26      C       2.7812751440    -4.2607247150     0.6628286388
   27      H       1.6394628546    -6.0776714090     0.6815277275
   28      H       1.7636619564    -5.3099168311     2.2496088146
   29      C       4.1383140571    -4.6331899234     0.6334723963
   30      C       5.0523815261    -3.8013062571     0.0298272714
   31      C       3.2435743340    -2.2441131475    -0.6372763961
   32      C       4.6304034833    -2.6232832219    -0.6457042865
   33      H       4.4540372945    -5.5698737693     1.0846423861
   34      H       6.1077896652    -4.0601383987     0.0127126297
   35      C       5.5630380457    -1.8466356428    -1.3825197471
   36      C       2.8525459429    -1.1655406375    -1.4709162472
   37      C       3.7790804808    -0.4518648255    -2.2029160220
   38      C       5.1520562231    -0.7731572023    -2.1392874153
   39      H       1.8052012582    -0.9096641140    -1.5464566578
   40      H       3.4448421241     0.3633299315    -2.8377718806
   41      H       6.6107883050    -2.1347861075    -1.3570885411
   42      H       5.8735804142    -0.1924974697    -2.7062504432
   43      H      -0.1898056517    -4.7759337169     0.0929770651
   44      C      -0.5715838767    -4.1778165631     2.1315210753
   45      C      -1.1339328179    -5.5631898066     2.4869796733
   46      H      -1.6655563617    -6.0109076087     1.6394611437
   47      H      -1.8383594766    -5.4921721416     3.3222624522
   48      H      -0.3412268258    -6.2584785983     2.7862533825
   49      C       0.0879866297    -3.5200563236     3.3545061143
   50      H       0.9139476585    -4.1198956027     3.7527247493
   51      H      -0.6464140970    -3.4109217032     4.1592015789
   52      H       0.4741359002    -2.5248354494     3.1184996043
   53      H      -1.4183965973    -3.5464368578     1.8508474508
 ----------------------------------------------------------------

    7   -1119.5976045995      7.78e-09  Convergence criterion met
 Total energy in the final basis set =    -1119.5976045995
 Final energy is   -1119.59760459948
 **  OPTIMIZATION CONVERGED  **

                    Orbital Energies (a.u.)
 --------------------------------------------------------------

 Alpha MOs
 -- Occupied --
-10.2086 -10.2023 -10.2013 -10.2000 -10.1999 -10.1986 -10.1977 -10.1948
-10.1936 -10.1920 -10.1908 -10.1905 -10.1898 -10.1877 -10.1861 -10.1855
-10.1852 -10.1850 -10.1841 -10.1837 -10.1833 -10.1829 -10.1825 -10.1820
-10.1814 -10.1805 -10.1798 -10.1731 -10.1674  -0.8882  -0.8764  -0.8492
 -0.8339  -0.8135  -0.7940  -0.7830  -0.7630  -0.7555  -0.7402  -0.7337
 -0.7121  -0.7046  -0.7004  -0.6788  -0.6596  -0.6275  -0.6240  -0.6098
 -0.5949  -0.5858  -0.5771  -0.5635  -0.5550  -0.5317  -0.5166  -0.5074
 -0.4919  -0.4857  -0.4797  -0.4732  -0.4627  -0.4537  -0.4493  -0.4355
 -0.4326  -0.4286  -0.4220  -0.4173  -0.4134  -0.4117  -0.4054  -0.4042
 -0.4011  -0.3929  -0.3888  -0.3834  -0.3777  -0.3752  -0.3671  -0.3573
 -0.3503  -0.3479  -0.3428  -0.3384  -0.3353  -0.3301  -0.3282  -0.3238
 -0.3215  -0.3131  -0.3108  -0.2967  -0.2822  -0.2695  -0.2422  -0.2406
 -0.2259  -0.2064  -0.1864

          Ground-State Mulliken Net Atomic Charges

     Atom                 Charge (a.u.)
  ----------------------------------------
      1 C                     0.029528
      2 C                     0.057926
      3 C                    -0.028267
      4 C                     0.038514
      5 C                     0.034083
      6 C                    -0.121358
      7 C                    -0.097824
      8 C                    -0.091556
      9 C                    -0.133180
     10 H                     0.081800
     11 H                     0.081651
     12 H                     0.079992
     13 H                     0.079477
     14 C                    -0.123651
     15 C                    -0.123918
     16 C                    -0.097268
     17 C                    -0.092734
     18 H                     0.094591
     19 H                     0.080921
     20 H                     0.080328
     21 H                     0.080266
     22 C                    -0.013854
     23 C                    -0.116206
     24 C                     0.041972
     25 C                    -0.259015
     26 C                     0.051077
     27 H                     0.115139
     28 H                     0.120096
     29 C                    -0.124006
     30 C                    -0.126516
     31 C                     0.053320
     32 C                     0.102330
     33 H                     0.084832
     34 H                     0.088371
     35 C                    -0.136491
     36 C                    -0.114629
     37 C                    -0.096756
     38 C                    -0.087058
     39 H                     0.111016
     40 H                     0.091247
     41 H                     0.084505
     42 H                     0.086555
     43 H                     0.107794
     44 C                    -0.058759
     45 C                    -0.314182
     46 H                     0.094860
     47 H                     0.102787
     48 H                     0.099295
     49 C                    -0.319585
     50 H                     0.093410
     51 H                     0.102047
     52 H                     0.117598
     53 H                     0.109484
  ----------------------------------------
  Sum of atomic charges =    -0.000000

                    Cartesian Multipole Moments
 -----------------------------------------------------------------
    Charge (ESU x 10^10)
                -0.0000
    Dipole Moment (Debye)
         X       1.1588      Y      -1.3664      Z       0.0194
       Tot       1.7917
    Quadrupole Moments (Debye-Ang)
        XX    -151.6255     XY      -4.9050     YY    -149.6049
        XZ       0.8856     YZ      -4.2706     ZZ    -170.2518

 Total job time:  825.81s(wall), 11375.77s(cpu)
        *  Thank you very much for using Q-Chem.  Have a nice day.  *
