 Q-Chem 5.2 (devel), Q-Chem, Inc., Pleasanton, CA (2019)
 Q-Chem 5.2.0 for Intel X86 EM64T Linux

User input:
--------------------------------------------------------------
 $rem
 JOBTYPE OPT
 EXCHANGE B3LYP
 SCF_ALGORITHM diis
 SCF_MAX_CYCLES 300
 BASIS 6-31G**
 GEOM_OPT_MAX_CYCLES 300
 scf_convergence 8
 SYM_IGNORE TRUE
 SYMMETRY   FALSE

molden_format true
 $end

$molecule
0 1
C         -1.90182       -0.37469       -0.17825
C         -1.52483       -1.71131       -0.13649
C         -0.05761       -1.79365        0.17053
C          0.33698       -0.36344        0.37320
C         -0.75860        0.45293        0.14484
C         -3.20510        0.02500       -0.48031
C         -4.15332       -0.96027       -0.77611
C         -3.78522       -2.31448       -0.77865
C         -2.46985       -2.69724       -0.47213
H         -3.48190        1.07079       -0.49335
H         -5.16947       -0.67632       -1.01714
H         -4.52005       -3.06902       -1.02816
H         -2.23296       -3.74146       -0.51457
C         -0.69834        1.84108        0.28683
C          1.52106        0.20766        0.87366
C          0.50523        2.41622        0.71258
C          1.60604        1.60068        1.02034
H          2.36628       -0.39781        1.15996
H          2.52072        2.04802        1.38721
H         -1.56329        2.46251        0.09686
H          0.57625        3.48883        0.83794
C          0.73115       -2.91411        0.30793
C          0.20208       -4.27324        0.83483
C          2.22176       -3.03818        0.13482
C          1.46048       -5.18494        0.84634
C          2.60203       -4.29818        0.55371
H          1.41413       -5.92450        0.01722
H          1.65240       -5.74850        1.77410
C          3.92650       -4.72938        0.56634
C          4.92568       -3.87926        0.11154
C          3.21837       -2.22592       -0.50828
C          4.58430       -2.64796       -0.46326
H          4.17835       -5.72423        0.91185
H          5.95420       -4.22058        0.12647
C          5.59487       -1.86531       -1.04490
C          2.92954       -1.06830       -1.26231
C          3.94343       -0.30715       -1.84789
C          5.27398       -0.69206       -1.72139
H          1.92390       -0.74268       -1.44012
H          3.69272        0.58278       -2.41103
H          6.63215       -2.17647       -1.00121
H          6.05517       -0.09963       -2.18008
H         -0.54244       -4.73203        0.16398
C         -0.38622       -4.21083        2.33666
C         -0.84579       -5.62742        2.78769
H         -1.62712       -6.01492        2.09864
H         -1.27810       -5.59550        3.81177
H         -0.03728       -6.37874        2.83166
C          0.66781       -3.66587        3.33953
C         -1.63739       -3.31937        2.50241
H          1.58198       -4.28772        3.39099
H          0.25165       -3.63328        4.36992
H          0.97193       -2.63351        3.06361
H         -2.47198       -3.67634        1.87026
H         -1.42019       -2.25125        2.32680
H         -2.01011       -3.36024        3.54963
$end
--------------------------------------------------------------

   15   -1158.8864726500      6.63e-09  Convergence criterion met
 Total energy in the final basis set =    -1158.8864726500
   13   -1158.8943200500      1.82e-09  Convergence criterion met
 Total energy in the final basis set =    -1158.8943200500
   12   -1158.9000094484      8.28e-09  Convergence criterion met
 Total energy in the final basis set =    -1158.9000094484
   12   -1158.8994041753      5.38e-09  Convergence criterion met
 Total energy in the final basis set =    -1158.8994041753
   12   -1158.9007632008      4.73e-09  Convergence criterion met
 Total energy in the final basis set =    -1158.9007632008
   12   -1158.9011785263      3.86e-09  Convergence criterion met
 Total energy in the final basis set =    -1158.9011785263
   11   -1158.9014710661      6.21e-09  Convergence criterion met
 Total energy in the final basis set =    -1158.9014710661
   11   -1158.9011760293      7.95e-09  Convergence criterion met
 Total energy in the final basis set =    -1158.9011760293
   11   -1158.9015521483      6.38e-09  Convergence criterion met
 Total energy in the final basis set =    -1158.9015521483
   10   -1158.9015556842      5.39e-09  Convergence criterion met
 Total energy in the final basis set =    -1158.9015556842
    9   -1158.9015647680      6.51e-09  Convergence criterion met
 Total energy in the final basis set =    -1158.9015647680

             Standard Nuclear Orientation (Angstroms)
    I     Atom           X                Y                Z
 ----------------------------------------------------------------
    1      C      -1.9188832193    -0.3878823867    -0.2728931034
    2      C      -1.4735434887    -1.7363997248    -0.2524306605
    3      C      -0.0536894755    -1.7708336941     0.1714887708
    4      C       0.3012003097    -0.3611614998     0.4497681145
    5      C      -0.8334390986     0.4595071598     0.2126293607
    6      C      -3.1950334428    -0.0541201081    -0.7258409600
    7      C      -4.0422207731    -1.0657763478    -1.1779086501
    8      C      -3.6008283796    -2.3945087219    -1.1980460260
    9      C      -2.3225789260    -2.7323986606    -0.7519231116
   10      H      -3.5222743999     0.9819659543    -0.7373862289
   11      H      -5.0400504812    -0.8214803501    -1.5301781098
   12      H      -4.2583882074    -3.1745940877    -1.5708269249
   13      H      -2.0027697137    -3.7663407279    -0.8094541039
   14      C      -0.8104486717     1.8225791599     0.5064962682
   15      C       1.4313543672     0.2024410384     1.0574851685
   16      C       0.3421475737     2.3778215773     1.0633987351
   17      C       1.4482489416     1.5672007701     1.3473569620
   18      H       2.2923046096    -0.4076194609     1.3045583927
   19      H       2.3312271250     2.0030399484     1.8058365945
   20      H      -1.6855511519     2.4409987296     0.3257190797
   21      H       0.3741169956     3.4378243667     1.2978644075
   22      C       0.7260833583    -2.9010499899     0.3588094117
   23      C       0.1729411630    -4.2151940222     0.9610595177
   24      C       2.1646896940    -3.0765978523     0.1385538172
   25      C       1.3357797448    -5.2237995064     0.8043901729
   26      C       2.5355234392    -4.3759659078     0.5043085127
   27      H       1.1626881503    -5.9010337431    -0.0434493952
   28      H       1.4808223604    -5.8659123035     1.6765699131
   29      C       3.8707249020    -4.8162292545     0.4827190965
   30      C       4.8523120923    -3.9657123499     0.0294474472
   31      C       3.1473831393    -2.2556633870    -0.5371772260
   32      C       4.5151835144    -2.7022420075    -0.5287967640
   33      H       4.1163947087    -5.8185696246     0.8224260644
   34      H       5.8948259483    -4.2727257037     0.0297944673
   35      C       5.5155656174    -1.9081566824    -1.1489598715
   36      C       2.8465260792    -1.0963162752    -1.2956387070
   37      C       3.8366848854    -0.3692982678    -1.9253191810
   38      C       5.1899704620    -0.7552264201    -1.8263739033
   39      H       1.8173118464    -0.7896593011    -1.4072099345
   40      H       3.5659999177     0.5055867959    -2.5090073258
   41      H       6.5464725164    -2.2500142888    -1.1059403001
   42      H       5.9625108397    -0.1638014454    -2.3085547836
   43      H      -0.7072778867    -4.5685483055     0.4201747700
   44      C      -0.2761381177    -4.0892225493     2.4837021903
   45      C      -0.8358931840    -5.4599770591     2.9278707748
   46      H      -1.6891610007    -5.7539679464     2.3057229571
   47      H      -1.1867448097    -5.4040332435     3.9638480679
   48      H      -0.0941365060    -6.2618374880     2.8801814891
   49      C       0.9054148459    -3.6913360183     3.3902919708
   50      C      -1.4043002251    -3.0610251854     2.6916535020
   51      H       1.7325138926    -4.4066719994     3.3478319797
   52      H       0.5720741551    -3.6400658207     4.4325038434
   53      H       1.2983972877    -2.7067396057     3.1195924199
   54      H      -2.2697850531    -3.2695553006     2.0572006010
   55      H      -1.0796455844    -2.0380480391     2.4944250763
   56      H      -1.7384726866    -3.1024428359     3.7346553539
 ----------------------------------------------------------------

    9   -1158.9015653814      4.85e-09  Convergence criterion met
 Total energy in the final basis set =    -1158.9015653814
 Final energy is   -1158.90156538142
 **  OPTIMIZATION CONVERGED  **

                    Orbital Energies (a.u.)
 --------------------------------------------------------------

 Alpha MOs
 -- Occupied --
-10.2095 -10.2029 -10.2012 -10.2007 -10.2003 -10.2000 -10.1987 -10.1979
-10.1952 -10.1934 -10.1920 -10.1903 -10.1897 -10.1897 -10.1869 -10.1858
-10.1846 -10.1842 -10.1834 -10.1830 -10.1828 -10.1826 -10.1823 -10.1823
-10.1818 -10.1814 -10.1804 -10.1721 -10.1676 -10.1604  -0.8884  -0.8766
 -0.8506  -0.8337  -0.8166  -0.7986  -0.7868  -0.7638  -0.7573  -0.7406
 -0.7336  -0.7126  -0.7047  -0.7028  -0.6811  -0.6728  -0.6584  -0.6273
 -0.6199  -0.6092  -0.5902  -0.5857  -0.5769  -0.5638  -0.5451  -0.5258
 -0.5158  -0.5068  -0.4894  -0.4850  -0.4766  -0.4725  -0.4675  -0.4530
 -0.4485  -0.4349  -0.4334  -0.4308  -0.4262  -0.4219  -0.4151  -0.4124
 -0.4085  -0.4058  -0.4007  -0.3962  -0.3938  -0.3843  -0.3814  -0.3767
 -0.3742  -0.3622  -0.3577  -0.3541  -0.3494  -0.3457  -0.3443  -0.3372
 -0.3328  -0.3280  -0.3236  -0.3219  -0.3211  -0.3120  -0.3073  -0.2939
 -0.2804  -0.2693  -0.2418  -0.2401  -0.2260  -0.2063  -0.1828

          Ground-State Mulliken Net Atomic Charges

     Atom                 Charge (a.u.)
  ----------------------------------------
      1 C                     0.032557
      2 C                     0.073249
      3 C                    -0.053944
      4 C                     0.034052
      5 C                     0.029994
      6 C                    -0.120054
      7 C                    -0.097943
      8 C                    -0.090958
      9 C                    -0.137587
     10 H                     0.081315
     11 H                     0.081202
     12 H                     0.079362
     13 H                     0.080066
     14 C                    -0.121411
     15 C                    -0.123181
     16 C                    -0.098010
     17 C                    -0.091659
     18 H                     0.095022
     19 H                     0.081123
     20 H                     0.080557
     21 H                     0.080552
     22 C                    -0.017786
     23 C                    -0.109524
     24 C                     0.065787
     25 C                    -0.256016
     26 C                     0.052996
     27 H                     0.121127
     28 H                     0.109140
     29 C                    -0.128639
     30 C                    -0.124495
     31 C                     0.048207
     32 C                     0.102097
     33 H                     0.084732
     34 H                     0.088318
     35 C                    -0.135950
     36 C                    -0.115889
     37 C                    -0.097010
     38 C                    -0.087273
     39 H                     0.112685
     40 H                     0.091524
     41 H                     0.084525
     42 H                     0.086568
     43 H                     0.092571
     44 C                     0.046683
     45 C                    -0.300586
     46 H                     0.097203
     47 H                     0.100293
     48 H                     0.093638
     49 C                    -0.312113
     50 C                    -0.304654
     51 H                     0.094730
     52 H                     0.097956
     53 H                     0.112643
     54 H                     0.103726
     55 H                     0.118679
     56 H                     0.089800
  ----------------------------------------
  Sum of atomic charges =     0.000000

                    Cartesian Multipole Moments
 -----------------------------------------------------------------
    Charge (ESU x 10^10)
                 0.0000
    Dipole Moment (Debye)
         X       1.1927      Y      -1.4400      Z       0.1066
       Tot       1.8728
    Quadrupole Moments (Debye-Ang)
        XX    -159.7318     XY      -4.6393     YY    -154.9081
        XZ       1.4344     YZ      -3.5558     ZZ    -176.9854

 Total job time:  1132.69s(wall), 15275.24s(cpu)
        *  Thank you very much for using Q-Chem.  Have a nice day.  *
