 Q-Chem 5.2 (devel), Q-Chem, Inc., Pleasanton, CA (2019)
 Q-Chem 5.2.0 for Intel X86 EM64T Linux

User input:
--------------------------------------------------------------
 $rem
 JOBTYPE OPT
 EXCHANGE B3LYP
 SCF_ALGORITHM diis
 SCF_MAX_CYCLES 300
 BASIS 6-31G**
 GEOM_OPT_MAX_CYCLES 300
 scf_convergence 8
 SYM_IGNORE TRUE
 SYMMETRY   FALSE

molden_format true
 $end

$molecule
0 1
C         -1.66153       -0.19365        0.07523
C         -1.29521       -1.53051        0.10863
C          0.18947       -1.63223        0.23386
C          0.64028       -0.20209        0.27731
C         -0.47114        0.62417        0.18145
C         -2.99114        0.21204       -0.06037
C         -3.97713       -0.77233       -0.19935
C         -3.61824       -2.12953       -0.22737
C         -2.27502       -2.51213       -0.08966
H         -3.25942        1.26004       -0.07195
H         -5.01442       -0.48536       -0.31298
H         -4.38032       -2.88424       -0.37273
H         -2.02559       -3.54987       -0.17481
C         -0.37396        2.01661        0.22238
C          1.89910        0.37732        0.51845
C          0.88929        2.59203        0.39989
C          2.01914        1.77499        0.56056
H          2.78082       -0.21159        0.69406
H          2.98766        2.22633        0.73307
H         -1.25200        2.64270        0.13582
H          0.99102        3.66868        0.44162
C          0.96006       -2.76387        0.35904
C          0.49638       -4.11958        0.89365
C          2.43194       -2.91166        0.17613
C          1.74974       -4.62688        1.65397
C          2.86807       -3.96283        0.95432
H          1.78290       -5.73729        1.61031
H          1.81922       -4.29135        2.71235
C          4.21446       -4.30372        1.06080
C          5.15270       -3.60307        0.30116
C          3.35449       -2.24784       -0.67834
C          4.73437       -2.59618       -0.58813
H          4.52918       -5.11068        1.71012
H          6.19860       -3.87641        0.37510
C          5.67651       -1.95037       -1.40391
C          2.96379       -1.30020       -1.64599
C          3.91396       -0.67333       -2.45529
C          5.26602       -0.98862       -2.32726
H          1.92745       -1.04171       -1.79463
H          3.59898        0.05825       -3.18824
H          6.72888       -2.20019       -1.33794
H          5.99647       -0.49940       -2.95863
H          0.35485       -4.78958        0.01487
C         -0.65771       -4.16897        1.88291
C         -1.68455       -5.11970        1.72937
C         -0.70244       -3.29192        2.98482
C         -2.74005       -5.17657        2.64425
C         -1.76028       -3.35282        3.89609
H          0.07907       -2.55719        3.13355
C         -2.77909       -4.29269        3.72502
H         -1.78943       -2.67119        4.73626
H         -3.59708       -4.33856        4.43221
H         -1.66780       -5.81492        0.89924
H         -3.52769       -5.90761        2.51567
$end
--------------------------------------------------------------

   15   -1232.6932780721      6.18e-09  Convergence criterion met
 Total energy in the final basis set =    -1232.6932780721
   12   -1232.7012073025      8.00e-09  Convergence criterion met
 Total energy in the final basis set =    -1232.7012073025
   12   -1232.7056118003      6.88e-09  Convergence criterion met
 Total energy in the final basis set =    -1232.7056118003
   11   -1232.7066413191      7.46e-09  Convergence criterion met
 Total energy in the final basis set =    -1232.7066413191
   12   -1232.7062885820      5.17e-09  Convergence criterion met
 Total energy in the final basis set =    -1232.7062885820
   11   -1232.7069773288      6.79e-09  Convergence criterion met
 Total energy in the final basis set =    -1232.7069773288
   10   -1232.7070119448      6.70e-09  Convergence criterion met
 Total energy in the final basis set =    -1232.7070119448
   10   -1232.7070257135      5.93e-09  Convergence criterion met
 Total energy in the final basis set =    -1232.7070257135
    9   -1232.7070300015      8.58e-09  Convergence criterion met
 Total energy in the final basis set =    -1232.7070300015
    8   -1232.7070310768      4.44e-09  Convergence criterion met
 Total energy in the final basis set =    -1232.7070310768

             Standard Nuclear Orientation (Angstroms)
    I     Atom           X                Y                Z
 ----------------------------------------------------------------
    1      C      -1.6639527974    -0.1931531773    -0.0562534690
    2      C      -1.2464723418    -1.5482456691    -0.0182273534
    3      C       0.2093673323    -1.6004942933     0.2450044333
    4      C       0.6315750069    -0.1832417918     0.3853008430
    5      C      -0.5073309286     0.6511362124     0.2395555665
    6      C      -2.9772579830     0.1479858663    -0.3737073684
    7      C      -3.8866692959    -0.8673886916    -0.6749974239
    8      C      -3.4738573638    -2.2042025405    -0.6808904588
    9      C      -2.1579864903    -2.5496980998    -0.3669995630
   10      H      -3.2877873439     1.1888566203    -0.4007895388
   11      H      -4.9143478106    -0.6181252626    -0.9229869400
   12      H      -4.1834772635    -2.9853222292    -0.9377456381
   13      H      -1.8620650366    -3.5904810310    -0.4006570645
   14      C      -0.4185581321     2.0302205898     0.4215615646
   15      C       1.8479968579     0.3896114401     0.7727533244
   16      C       0.8119690610     2.5908601754     0.7675922036
   17      C       1.9315352079     1.7722365726     0.9513196197
   18      H       2.7259126716    -0.2228325148     0.9368960879
   19      H       2.8805722255     2.2145918434     1.2400563504
   20      H      -1.2977244245     2.6593754619     0.3123715056
   21      H       0.8973007828     3.6641756784     0.9108589966
   22      C       0.9743791502    -2.7311185813     0.4156800721
   23      C       0.4525431629    -4.0728193903     0.9734299591
   24      C       2.4201044964    -2.9020655349     0.2049992184
   25      C       1.7358113939    -4.7104486802     1.6041914284
   26      C       2.8695218294    -4.0243829570     0.9013461949
   27      H       1.7605417750    -5.7992148788     1.4873741594
   28      H       1.7537367650    -4.5086230282     2.6824996854
   29      C       4.2190773121    -4.4204943827     0.8961441442
   30      C       5.1248868713    -3.7069367031     0.1445245872
   31      C       3.3214929239    -2.2293063275    -0.6956587467
   32      C       4.7022722998    -2.6307804010    -0.6831381194
   33      H       4.5367682092    -5.2804208908     1.4792039734
   34      H       6.1750918964    -3.9867236334     0.1359602100
   35      C       5.6247614175    -1.9800425401    -1.5448198734
   36      C       2.9233071154    -1.2563094204    -1.6489308144
   37      C       3.8401063596    -0.6662702459    -2.4933229500
   38      C       5.2085822353    -1.0102363405    -2.4276487675
   39      H       1.8785260766    -0.9865293178    -1.7228424187
   40      H       3.5037721923     0.0674583966    -3.2200075576
   41      H       6.6682996933    -2.2819428165    -1.5084118706
   42      H       5.9223810063    -0.5262195194    -3.0874824440
   43      H       0.1479662879    -4.7164289176     0.1355059265
   44      C      -0.6734935931    -4.0497378610     1.9950902083
   45      C      -1.6447292096    -5.0579901912     1.9820540189
   46      C      -0.7087467681    -3.1058552372     3.0309587426
   47      C      -2.6325159789    -5.1201163820     2.9665058333
   48      C      -1.6944449816    -3.1634720192     4.0146060878
   49      H       0.0330037053    -2.3137847842     3.0625654646
   50      C      -2.6613474204    -4.1704603069     3.9868533339
   51      H      -1.7085347594    -2.4175364728     4.8043408573
   52      H      -3.4302459806    -4.2124504085     4.7528216559
   53      H      -1.6293453175    -5.8027716681     1.1887811039
   54      H      -3.3786420998    -5.9091037176     2.9327710188
 ----------------------------------------------------------------

    8   -1232.7070312952      2.66e-09  Convergence criterion met
 Total energy in the final basis set =    -1232.7070312952
 Final energy is   -1232.70703129521
 **  OPTIMIZATION CONVERGED  **

                    Orbital Energies (a.u.)
 --------------------------------------------------------------

 Alpha MOs
 -- Occupied --
-10.2096 -10.2070 -10.2027 -10.2010 -10.2006 -10.1999 -10.1985 -10.1964
-10.1952 -10.1945 -10.1936 -10.1923 -10.1910 -10.1904 -10.1865 -10.1861
-10.1860 -10.1854 -10.1853 -10.1845 -10.1844 -10.1830 -10.1823 -10.1822
-10.1821 -10.1820 -10.1817 -10.1817 -10.1814 -10.1809 -10.1801 -10.1800
 -0.8900  -0.8762  -0.8575  -0.8412  -0.8328  -0.8098  -0.7903  -0.7722
 -0.7608  -0.7485  -0.7395  -0.7371  -0.7325  -0.7119  -0.7036  -0.6982
 -0.6589  -0.6270  -0.6264  -0.6103  -0.6008  -0.5935  -0.5863  -0.5774
 -0.5726  -0.5617  -0.5388  -0.5186  -0.5081  -0.5049  -0.4893  -0.4844
 -0.4808  -0.4715  -0.4629  -0.4525  -0.4477  -0.4393  -0.4342  -0.4314
 -0.4284  -0.4223  -0.4170  -0.4136  -0.4114  -0.4069  -0.4015  -0.3967
 -0.3928  -0.3895  -0.3837  -0.3774  -0.3731  -0.3678  -0.3518  -0.3492
 -0.3438  -0.3422  -0.3386  -0.3349  -0.3336  -0.3298  -0.3251  -0.3208
 -0.3190  -0.2983  -0.2824  -0.2693  -0.2457  -0.2448  -0.2416  -0.2337
 -0.2262  -0.2052  -0.1885

          Ground-State Mulliken Net Atomic Charges

     Atom                 Charge (a.u.)
  ----------------------------------------
      1 C                     0.032859
      2 C                     0.065041
      3 C                    -0.035426
      4 C                     0.044235
      5 C                     0.034225
      6 C                    -0.123370
      7 C                    -0.095524
      8 C                    -0.093137
      9 C                    -0.112911
     10 H                     0.080563
     11 H                     0.080662
     12 H                     0.078984
     13 H                     0.076644
     14 C                    -0.124859
     15 C                    -0.125812
     16 C                    -0.096497
     17 C                    -0.093490
     18 H                     0.094307
     19 H                     0.080856
     20 H                     0.080904
     21 H                     0.080537
     22 C                    -0.011316
     23 C                    -0.190960
     24 C                     0.030659
     25 C                    -0.242157
     26 C                     0.058091
     27 H                     0.112265
     28 H                     0.131394
     29 C                    -0.129755
     30 C                    -0.126984
     31 C                     0.053670
     32 C                     0.103434
     33 H                     0.086228
     34 H                     0.088274
     35 C                    -0.136721
     36 C                    -0.112716
     37 C                    -0.097528
     38 C                    -0.086809
     39 H                     0.109835
     40 H                     0.091250
     41 H                     0.084755
     42 H                     0.086769
     43 H                     0.112781
     44 C                     0.139857
     45 C                    -0.131472
     46 C                    -0.116522
     47 C                    -0.083298
     48 C                    -0.085608
     49 H                     0.092487
     50 C                    -0.085483
     51 H                     0.086536
     52 H                     0.083319
     53 H                     0.073954
     54 H                     0.082979
  ----------------------------------------
  Sum of atomic charges =    -0.000000

                    Cartesian Multipole Moments
 -----------------------------------------------------------------
    Charge (ESU x 10^10)
                -0.0000
    Dipole Moment (Debye)
         X       1.1061      Y      -1.2795      Z       0.1760
       Tot       1.7004
    Quadrupole Moments (Debye-Ang)
        XX    -163.7057     XY      -3.0976     YY    -164.1013
        XZ      -1.1543     YZ      -3.3376     ZZ    -180.7438

 Total job time:  1050.68s(wall), 13821.90s(cpu)
        *  Thank you very much for using Q-Chem.  Have a nice day.  *
