 Q-Chem 5.2 (devel), Q-Chem, Inc., Pleasanton, CA (2019)
 Q-Chem 5.2.0 for Intel X86 EM64T Linux

User input:
--------------------------------------------------------------
 $rem
 JOBTYPE OPT
 EXCHANGE B3LYP
 SCF_ALGORITHM diis
 SCF_MAX_CYCLES 300
 BASIS 6-31G**
 GEOM_OPT_MAX_CYCLES 300
 scf_convergence 8
 SYM_IGNORE TRUE
 SYMMETRY   FALSE

molden_format true
 $end

$molecule
0 1
C       -1.4869883645     -0.0789919648     -0.2963109066
C       -1.0052986305     -1.3645978839     -0.1529720763
C        0.4319230160     -1.4151514926      0.2250560036
C        0.7083974112     -0.1055210958      0.3098786671
C       -0.3976424764      0.7806955935     -0.0010049659
C       -2.8018876934      0.2083408453     -0.6601469103
C       -3.6677867871     -0.8665636764     -0.8961268995
C       -3.2039058278     -2.1873086420     -0.7681943834
C       -1.8720922432     -2.4427997632     -0.3998664052
H       -3.1466951791      1.2291058824     -0.7600280685
H       -4.6948591169     -0.6799241886     -1.1815785430
H       -3.8767822382     -3.0134719784     -0.9582690571
H       -1.5454079188     -3.4649149216     -0.3215445192
C       -0.3181545983      2.1162868010      0.0251958277
C        1.9974446748      0.5078800907      0.7885464793
C        0.9677549546      2.7543422228      0.4096166147
C        2.0411814725      2.0194885724      0.7690539100
H        2.8784451421     -0.0930092260      1.0936540918
H        2.9604045011      2.5202512204      1.0548524550
H       -1.1784423862      2.7303555393     -0.2199842837
H        1.0367495915      3.8373625102      0.4136497460
C        1.1927789029     -2.4878799752      0.4261274411
C        0.7859988936     -3.6878482768      1.2511134216
C        2.5853392629     -2.7016388841     -0.0385233488
C        2.1194816037     -4.3777707294      1.6042247780
C        3.0956090348     -3.7827311290      0.6536353316
H        2.0152683641     -5.4809088469      1.5187423871
H        2.4917615888     -4.1111684879      2.6182196195
C        4.4090548003     -4.2052494377      0.4875693059
C        5.2154305397     -3.5533257282     -0.4428642709
C        3.3807082349     -2.0180672285     -1.0075777273
C        4.7176877143     -2.4851757361     -1.2054222877
H        4.7967236132     -5.0395129938      1.0582717087
H        6.2300221504     -3.8994802500     -0.5964634199
H        0.2114565302     -4.3586690216      0.5808068408
C       -0.0162707031     -3.3697793449      2.5191273108
H        0.5584679521     -2.6895447073      3.1836495367
H       -0.2402661176     -4.3087102927      3.0683723204
H       -0.9788931152     -2.8825834784      2.2635627239
O        5.5393098615     -1.9727217336     -2.1489669669
H        5.2735643472     -1.3177164969     -2.8061982985
C        2.8192178408     -0.9154565950     -1.8508045037
C        3.4285871050      0.3683707643     -1.9894832187
C        1.6237989605     -1.1749266129     -2.5479046506
C        1.0408143014     -0.2111208576     -3.3667074496
C        1.6340080010      1.0384177385     -3.5117577581
C        2.8191342101      1.3412186512     -2.8303423453
C        4.6008417627      0.7322338917     -1.2880088619
C        5.1596531984      2.0028475699     -1.4386003842
C        4.5623889607      2.9385287763     -2.2804732361
C        3.3959147765      2.6133668526     -2.9713954379
H        1.1408456021     -2.1411871951     -2.4660584635
H        0.1227647778     -0.4364169855     -3.8939188677
H        1.1606875648      1.7730152604     -4.1525337766
H        5.0918123433      0.0492034798     -0.6107296358
H        6.0587029717      2.2642106012     -0.8954335792
H        4.9999211575      3.9223082979     -2.3910551020
H        2.9402790805      3.3595219545     -3.6116308265
$end
--------------------------------------------------------------

   16   -1347.1697019813      5.61e-09  Convergence criterion met
 Total energy in the final basis set =    -1347.1697019813
   13   -1347.2129543283      6.92e-09  Convergence criterion met
 Total energy in the final basis set =    -1347.2129543283
   13   -1347.2314954676      5.13e-09  Convergence criterion met
 Total energy in the final basis set =    -1347.2314954676
   13   -1347.2386593358      5.14e-09  Convergence criterion met
 Total energy in the final basis set =    -1347.2386593358
   12   -1347.2408552710      6.75e-09  Convergence criterion met
 Total energy in the final basis set =    -1347.2408552710
   12   -1347.2419265553      5.75e-09  Convergence criterion met
 Total energy in the final basis set =    -1347.2419265553
   12   -1347.2420648906      4.50e-09  Convergence criterion met
 Total energy in the final basis set =    -1347.2420648906
   11   -1347.2425135812      6.64e-09  Convergence criterion met
   11   -1347.2426625622      5.39e-09  Convergence criterion met
 Total energy in the final basis set =    -1347.2426625622
   10   -1347.2427665927      9.02e-09  Convergence criterion met
 Total energy in the final basis set =    -1347.2427665927
   10   -1347.2428203590      8.03e-09  Convergence criterion met
 Total energy in the final basis set =    -1347.2428203590
   10   -1347.2428395635      5.54e-09  Convergence criterion met
 Total energy in the final basis set =    -1347.2428395635
    9   -1347.2428461486      7.84e-09  Convergence criterion met
 Total energy in the final basis set =    -1347.2428461486
    9   -1347.2428488779      3.79e-09  Convergence criterion met
 Total energy in the final basis set =    -1347.2428488779

             Standard Nuclear Orientation (Angstroms)
    I     Atom           X                Y                Z
 ----------------------------------------------------------------
    1      C      -1.5455473976    -0.0266719853    -0.0356063546
    2      C      -1.0705613635    -1.3619436321     0.0406286917
    3      C       0.3899597671    -1.3426941336     0.2836186837
    4      C       0.7492162775     0.0887298952     0.3801005348
    5      C      -0.4240284506     0.8730282717     0.2324563370
    6      C      -2.8730521594     0.2459772970    -0.3619431065
    7      C      -3.7369860592    -0.8157879337    -0.6369429018
    8      C      -3.2660452833    -2.1335633759    -0.6116754659
    9      C      -1.9360651379    -2.4114357300    -0.2893126931
   10      H      -3.2289083013     1.2710544213    -0.4184072955
   11      H      -4.7742699782    -0.6181561172    -0.8911359491
   12      H      -3.9395365441    -2.9506863585    -0.8537561760
   13      H      -1.5859722291    -3.4379596077    -0.3108222868
   14      C      -0.3899162813     2.2556723102     0.4044210634
   15      C       1.9394018787     0.7075575363     0.7686212334
   16      C       0.8182505238     2.8651451742     0.7476928874
   17      C       1.9691326016     2.0929016089     0.9400100130
   18      H       2.8341834744     0.1219007242     0.9459384153
   19      H       2.8990954335     2.5753362657     1.2250152294
   20      H      -1.2930429596     2.8500763407     0.2947084178
   21      H       0.8610255815     3.9416290268     0.8859663322
   22      C       1.2099696805    -2.4349322424     0.4310141679
   23      C       0.7781687763    -3.7594972807     1.0929117889
   24      C       2.6379395554    -2.5800757234     0.0764980228
   25      C       2.1232121752    -4.3221821717     1.6399833983
   26      C       3.1653811117    -3.6947822948     0.7618628218
   27      H       2.1573605383    -5.4167842899     1.6280391759
   28      H       2.2428475767    -4.0111978336     2.6874750666
   29      C       4.4679319560    -4.1296991605     0.5493304020
   30      C       5.2507395670    -3.4848382364    -0.3990478964
   31      C       3.4109935524    -1.9373312732    -0.9340205114
   32      C       4.7179748106    -2.4312775840    -1.1541255192
   33      H       4.8634767942    -4.9809272622     1.0964948143
   34      H       6.2611465428    -3.8103407491    -0.6224793550
   35      H       0.4176503988    -4.4576413328     0.3210488754
   36      C      -0.2549559350    -3.6648647739     2.2230099898
   37      H       0.0694824804    -2.9343676520     2.9712280553
   38      H      -0.3424613386    -4.6383241490     2.7181574265
   39      H      -1.2476223577    -3.3722643229     1.8842079048
   40      O       5.5340323356    -1.9597910228    -2.1402035603
   41      H       5.0896393291    -1.2448003763    -2.6188039034
   42      C       2.8706007968    -0.9257426247    -1.8956935474
   43      C       3.4896413069     0.3608305669    -2.0816671335
   44      C       1.7966281039    -1.2717514358    -2.7006181751
   45      C       1.2862973284    -0.3936288128    -3.6793388985
   46      C       1.8660060404     0.8382013255    -3.8750014088
   47      C       2.9757523874     1.2437468016    -3.0915528850
   48      C       4.5945823277     0.8107645419    -1.3006323591
   49      C       5.1661775997     2.0439977140    -1.5153055873
   50      C       4.6627268141     2.9048668739    -2.5193742697
   51      C       3.5901307386     2.5113771698    -3.2839499481
   52      H       1.3366268048    -2.2459647552    -2.5724981724
   53      H       0.4389976950    -0.7040421023    -4.2830837234
   54      H       1.4842425918     1.5169635285    -4.6328174339
   55      H       4.9804685392     0.1665767117    -0.5182649884
   56      H       6.0074500282     2.3614975098    -0.9062986927
   57      H       5.1228046187     3.8753868356    -2.6796935008
   58      H       3.1905887128     3.1682371427    -4.0523209651
 ----------------------------------------------------------------

    8   -1347.2428491061      6.56e-09  Convergence criterion met
 Total energy in the final basis set =    -1347.2428491061
 Final energy is   -1347.24284910608
 **  OPTIMIZATION CONVERGED  **

                    Orbital Energies (a.u.)
 --------------------------------------------------------------

 Alpha MOs
 -- Occupied --
-19.1706 -10.2498 -10.2069 -10.2052 -10.2041 -10.2036 -10.2017 -10.2010
-10.2009 -10.1944 -10.1939 -10.1936 -10.1931 -10.1929 -10.1923 -10.1920
-10.1918 -10.1914 -10.1900 -10.1893 -10.1879 -10.1873 -10.1858 -10.1849
-10.1846 -10.1840 -10.1838 -10.1836 -10.1818 -10.1811 -10.1805 -10.1796
-10.1786 -10.1716  -1.0544  -0.8860  -0.8767  -0.8694  -0.8339  -0.8260
 -0.8176  -0.7940  -0.7870  -0.7610  -0.7515  -0.7419  -0.7417  -0.7325
 -0.7209  -0.7050  -0.7041  -0.6735  -0.6548  -0.6315  -0.6223  -0.6147
 -0.6134  -0.5858  -0.5842  -0.5781  -0.5728  -0.5627  -0.5412  -0.5280
 -0.5144  -0.5098  -0.5039  -0.4920  -0.4857  -0.4835  -0.4676  -0.4591
 -0.4535  -0.4456  -0.4394  -0.4371  -0.4325  -0.4248  -0.4221  -0.4175
 -0.4159  -0.4119  -0.4079  -0.4030  -0.4019  -0.3998  -0.3967  -0.3925
 -0.3884  -0.3798  -0.3762  -0.3632  -0.3622  -0.3538  -0.3496  -0.3470
 -0.3434  -0.3399  -0.3382  -0.3307  -0.3299  -0.3274  -0.3249  -0.3190
 -0.3154  -0.2929  -0.2871  -0.2700  -0.2585  -0.2467  -0.2391  -0.2267
 -0.2108  -0.2049  -0.1868

          Ground-State Mulliken Net Atomic Charges

     Atom                 Charge (a.u.)
  ----------------------------------------
      1 C                     0.034941
      2 C                     0.060987
      3 C                    -0.008107
      4 C                     0.073865
      5 C                     0.029522
      6 C                    -0.122148
      7 C                    -0.097569
      8 C                    -0.092849
      9 C                    -0.141834
     10 H                     0.081935
     11 H                     0.081597
     12 H                     0.080180
     13 H                     0.084002
     14 C                    -0.123797
     15 C                    -0.130180
     16 C                    -0.096223
     17 C                    -0.084519
     18 H                     0.085759
     19 H                     0.079351
     20 H                     0.079191
     21 H                     0.079123
     22 C                    -0.051022
     23 C                    -0.114033
     24 C                     0.070559
     25 C                    -0.241102
     26 C                     0.051451
     27 H                     0.104852
     28 H                     0.118004
     29 C                    -0.136087
     30 C                    -0.099087
     31 C                    -0.032227
     32 C                     0.295261
     33 H                     0.084962
     34 H                     0.099504
     35 H                     0.110570
     36 C                    -0.318433
     37 H                     0.110472
     38 H                     0.097853
     39 H                     0.117124
     40 O                    -0.566090
     41 H                     0.322301
     42 C                    -0.013204
     43 C                     0.033431
     44 C                    -0.092092
     45 C                    -0.089834
     46 C                    -0.122893
     47 C                     0.107213
     48 C                    -0.133927
     49 C                    -0.091112
     50 C                    -0.088975
     51 C                    -0.128661
     52 H                     0.095707
     53 H                     0.092350
     54 H                     0.086512
     55 H                     0.103629
     56 H                     0.089135
     57 H                     0.087832
     58 H                     0.086829
  ----------------------------------------
  Sum of atomic charges =    -0.000000

                    Cartesian Multipole Moments
 -----------------------------------------------------------------
    Charge (ESU x 10^10)
                -0.0000
    Dipole Moment (Debye)
         X      -0.2025      Y      -0.0013      Z      -0.4748
       Tot       0.5161
    Quadrupole Moments (Debye-Ang)
        XX    -190.5655     XY       5.1920     YY    -175.5671
        XZ       7.1151     YZ      -7.7369     ZZ    -190.9172

 Total job time:  1923.09s(wall), 24347.59s(cpu)
        *  Thank you very much for using Q-Chem.  Have a nice day.  *
